 TITLE="vector"
 VARIABLES="x(m)" "y(m)"
 ZONE T="0" I=          81  J=          21  F=POINT
  -2.00000000000000      -0.500000000000000     
  -1.95000000000000      -0.500000000000000     
  -1.90000000000000      -0.500000000000000     
  -1.85000000000000      -0.500000000000000     
  -1.80000000000000      -0.500000000000000     
  -1.75000000000000      -0.500000000000000     
  -1.70000000000000      -0.500000000000000     
  -1.65000000000000      -0.500000000000000     
  -1.60000000000000      -0.500000000000000     
  -1.55000000000000      -0.500000000000000     
  -1.50000000000000      -0.500000000000000     
  -1.45000000000000      -0.500000000000000     
  -1.40000000000000      -0.500000000000000     
  -1.35000000000000      -0.500000000000000     
  -1.30000000000000      -0.500000000000000     
  -1.25000000000000      -0.500000000000000     
  -1.20000000000000      -0.500000000000000     
  -1.15000000000000      -0.500000000000000     
  -1.10000000000000      -0.500000000000000     
  -1.05000000000000      -0.500000000000000     
  -1.00000000000000      -0.500000000000000     
 -0.950000000000000      -0.500000000000000     
 -0.900000000000000      -0.500000000000000     
 -0.850000000000000      -0.500000000000000     
 -0.800000000000000      -0.500000000000000     
 -0.750000000000000      -0.500000000000000     
 -0.700000000000000      -0.500000000000000     
 -0.650000000000000      -0.500000000000000     
 -0.600000000000000      -0.500000000000000     
 -0.550000000000000      -0.500000000000000     
 -0.500000000000000      -0.500000000000000     
 -0.450000000000000      -0.500000000000000     
 -0.400000000000000      -0.500000000000000     
 -0.350000000000000      -0.500000000000000     
 -0.300000000000000      -0.500000000000000     
 -0.250000000000000      -0.500000000000000     
 -0.200000000000000      -0.500000000000000     
 -0.150000000000000      -0.500000000000000     
 -0.100000000000000      -0.500000000000000     
 -4.999999999999982E-002 -0.500000000000000     
  0.000000000000000E+000 -0.500000000000000     
  5.000000000000027E-002 -0.500000000000000     
  0.100000000000000      -0.500000000000000     
  0.150000000000000      -0.500000000000000     
  0.200000000000000      -0.500000000000000     
  0.250000000000000      -0.500000000000000     
  0.300000000000000      -0.500000000000000     
  0.350000000000000      -0.500000000000000     
  0.400000000000000      -0.500000000000000     
  0.450000000000000      -0.500000000000000     
  0.500000000000000      -0.500000000000000     
  0.550000000000000      -0.500000000000000     
  0.600000000000000      -0.500000000000000     
  0.650000000000000      -0.500000000000000     
  0.700000000000000      -0.500000000000000     
  0.750000000000000      -0.500000000000000     
  0.800000000000000      -0.500000000000000     
  0.850000000000000      -0.500000000000000     
  0.900000000000000      -0.500000000000000     
  0.950000000000000      -0.500000000000000     
   1.00000000000000      -0.500000000000000     
   1.05000000000000      -0.500000000000000     
   1.10000000000000      -0.500000000000000     
   1.15000000000000      -0.500000000000000     
   1.20000000000000      -0.500000000000000     
   1.25000000000000      -0.500000000000000     
   1.30000000000000      -0.500000000000000     
   1.35000000000000      -0.500000000000000     
   1.40000000000000      -0.500000000000000     
   1.45000000000000      -0.500000000000000     
   1.50000000000000      -0.500000000000000     
   1.55000000000000      -0.500000000000000     
   1.60000000000000      -0.500000000000000     
   1.65000000000000      -0.500000000000000     
   1.70000000000000      -0.500000000000000     
   1.75000000000000      -0.500000000000000     
   1.80000000000000      -0.500000000000000     
   1.85000000000000      -0.500000000000000     
   1.90000000000000      -0.500000000000000     
   1.95000000000000      -0.500000000000000     
   2.00000000000000      -0.500000000000000     
  -2.00000000000000      -0.450000000000000     
  -1.95000000000000      -0.450000000000000     
  -1.90000000000000      -0.450000000000000     
  -1.85000000000000      -0.450000000000000     
  -1.80000000000000      -0.450000000000000     
  -1.75000000000000      -0.450000000000000     
  -1.70000000000000      -0.450000000000000     
  -1.65000000000000      -0.450000000000000     
  -1.60000000000000      -0.450000000000000     
  -1.55000000000000      -0.450000000000000     
  -1.50000000000000      -0.450000000000000     
  -1.45000000000000      -0.450000000000000     
  -1.40000000000000      -0.450000000000000     
  -1.35000000000000      -0.450000000000000     
  -1.30000000000000      -0.450000000000000     
  -1.25000000000000      -0.450000000000000     
  -1.20000000000000      -0.450000000000000     
  -1.15000000000000      -0.450000000000000     
  -1.10000000000000      -0.450000000000000     
  -1.05000000000000      -0.450000000000000     
  -1.00000000000000      -0.450000000000000     
 -0.950000000000000      -0.450000000000000     
 -0.900000000000000      -0.450000000000000     
 -0.850000000000000      -0.450000000000000     
 -0.800000000000000      -0.450000000000000     
 -0.750000000000000      -0.450000000000000     
 -0.700000000000000      -0.450000000000000     
 -0.650000000000000      -0.450000000000000     
 -0.600000000000000      -0.450000000000000     
 -0.550000000000000      -0.450000000000000     
 -0.500000000000000      -0.450000000000000     
 -0.450000000000000      -0.450000000000000     
 -0.400000000000000      -0.450000000000000     
 -0.350000000000000      -0.450000000000000     
 -0.300000000000000      -0.450000000000000     
 -0.250000000000000      -0.450000000000000     
 -0.200000000000000      -0.450000000000000     
 -0.150000000000000      -0.450000000000000     
 -0.100000000000000      -0.450000000000000     
 -4.999999999999982E-002 -0.450000000000000     
  0.000000000000000E+000 -0.450000000000000     
  5.000000000000027E-002 -0.450000000000000     
  0.100000000000000      -0.450000000000000     
  0.150000000000000      -0.450000000000000     
  0.200000000000000      -0.450000000000000     
  0.250000000000000      -0.450000000000000     
  0.300000000000000      -0.450000000000000     
  0.350000000000000      -0.450000000000000     
  0.400000000000000      -0.450000000000000     
  0.450000000000000      -0.450000000000000     
  0.500000000000000      -0.450000000000000     
  0.550000000000000      -0.450000000000000     
  0.600000000000000      -0.450000000000000     
  0.650000000000000      -0.450000000000000     
  0.700000000000000      -0.450000000000000     
  0.750000000000000      -0.450000000000000     
  0.800000000000000      -0.450000000000000     
  0.850000000000000      -0.450000000000000     
  0.900000000000000      -0.450000000000000     
  0.950000000000000      -0.450000000000000     
   1.00000000000000      -0.450000000000000     
   1.05000000000000      -0.450000000000000     
   1.10000000000000      -0.450000000000000     
   1.15000000000000      -0.450000000000000     
   1.20000000000000      -0.450000000000000     
   1.25000000000000      -0.450000000000000     
   1.30000000000000      -0.450000000000000     
   1.35000000000000      -0.450000000000000     
   1.40000000000000      -0.450000000000000     
   1.45000000000000      -0.450000000000000     
   1.50000000000000      -0.450000000000000     
   1.55000000000000      -0.450000000000000     
   1.60000000000000      -0.450000000000000     
   1.65000000000000      -0.450000000000000     
   1.70000000000000      -0.450000000000000     
   1.75000000000000      -0.450000000000000     
   1.80000000000000      -0.450000000000000     
   1.85000000000000      -0.450000000000000     
   1.90000000000000      -0.450000000000000     
   1.95000000000000      -0.450000000000000     
   2.00000000000000      -0.450000000000000     
  -2.00000000000000      -0.400000000000000     
  -1.95000000000000      -0.400000000000000     
  -1.90000000000000      -0.400000000000000     
  -1.85000000000000      -0.400000000000000     
  -1.80000000000000      -0.400000000000000     
  -1.75000000000000      -0.400000000000000     
  -1.70000000000000      -0.400000000000000     
  -1.65000000000000      -0.400000000000000     
  -1.60000000000000      -0.400000000000000     
  -1.55000000000000      -0.400000000000000     
  -1.50000000000000      -0.400000000000000     
  -1.45000000000000      -0.400000000000000     
  -1.40000000000000      -0.400000000000000     
  -1.35000000000000      -0.400000000000000     
  -1.30000000000000      -0.400000000000000     
  -1.25000000000000      -0.400000000000000     
  -1.20000000000000      -0.400000000000000     
  -1.15000000000000      -0.400000000000000     
  -1.10000000000000      -0.400000000000000     
  -1.05000000000000      -0.400000000000000     
  -1.00000000000000      -0.400000000000000     
 -0.950000000000000      -0.400000000000000     
 -0.900000000000000      -0.400000000000000     
 -0.850000000000000      -0.400000000000000     
 -0.800000000000000      -0.400000000000000     
 -0.750000000000000      -0.400000000000000     
 -0.700000000000000      -0.400000000000000     
 -0.650000000000000      -0.400000000000000     
 -0.600000000000000      -0.400000000000000     
 -0.550000000000000      -0.400000000000000     
 -0.500000000000000      -0.400000000000000     
 -0.450000000000000      -0.400000000000000     
 -0.400000000000000      -0.400000000000000     
 -0.350000000000000      -0.400000000000000     
 -0.300000000000000      -0.400000000000000     
 -0.250000000000000      -0.400000000000000     
 -0.200000000000000      -0.400000000000000     
 -0.150000000000000      -0.400000000000000     
 -0.100000000000000      -0.400000000000000     
 -4.999999999999982E-002 -0.400000000000000     
  0.000000000000000E+000 -0.400000000000000     
  5.000000000000027E-002 -0.400000000000000     
  0.100000000000000      -0.400000000000000     
  0.150000000000000      -0.400000000000000     
  0.200000000000000      -0.400000000000000     
  0.250000000000000      -0.400000000000000     
  0.300000000000000      -0.400000000000000     
  0.350000000000000      -0.400000000000000     
  0.400000000000000      -0.400000000000000     
  0.450000000000000      -0.400000000000000     
  0.500000000000000      -0.400000000000000     
  0.550000000000000      -0.400000000000000     
  0.600000000000000      -0.400000000000000     
  0.650000000000000      -0.400000000000000     
  0.700000000000000      -0.400000000000000     
  0.750000000000000      -0.400000000000000     
  0.800000000000000      -0.400000000000000     
  0.850000000000000      -0.400000000000000     
  0.900000000000000      -0.400000000000000     
  0.950000000000000      -0.400000000000000     
   1.00000000000000      -0.400000000000000     
   1.05000000000000      -0.400000000000000     
   1.10000000000000      -0.400000000000000     
   1.15000000000000      -0.400000000000000     
   1.20000000000000      -0.400000000000000     
   1.25000000000000      -0.400000000000000     
   1.30000000000000      -0.400000000000000     
   1.35000000000000      -0.400000000000000     
   1.40000000000000      -0.400000000000000     
   1.45000000000000      -0.400000000000000     
   1.50000000000000      -0.400000000000000     
   1.55000000000000      -0.400000000000000     
   1.60000000000000      -0.400000000000000     
   1.65000000000000      -0.400000000000000     
   1.70000000000000      -0.400000000000000     
   1.75000000000000      -0.400000000000000     
   1.80000000000000      -0.400000000000000     
   1.85000000000000      -0.400000000000000     
   1.90000000000000      -0.400000000000000     
   1.95000000000000      -0.400000000000000     
   2.00000000000000      -0.400000000000000     
  -2.00000000000000      -0.350000000000000     
  -1.95000000000000      -0.350000000000000     
  -1.90000000000000      -0.350000000000000     
  -1.85000000000000      -0.350000000000000     
  -1.80000000000000      -0.350000000000000     
  -1.75000000000000      -0.350000000000000     
  -1.70000000000000      -0.350000000000000     
  -1.65000000000000      -0.350000000000000     
  -1.60000000000000      -0.350000000000000     
  -1.55000000000000      -0.350000000000000     
  -1.50000000000000      -0.350000000000000     
  -1.45000000000000      -0.350000000000000     
  -1.40000000000000      -0.350000000000000     
  -1.35000000000000      -0.350000000000000     
  -1.30000000000000      -0.350000000000000     
  -1.25000000000000      -0.350000000000000     
  -1.20000000000000      -0.350000000000000     
  -1.15000000000000      -0.350000000000000     
  -1.10000000000000      -0.350000000000000     
  -1.05000000000000      -0.350000000000000     
  -1.00000000000000      -0.350000000000000     
 -0.950000000000000      -0.350000000000000     
 -0.900000000000000      -0.350000000000000     
 -0.850000000000000      -0.350000000000000     
 -0.800000000000000      -0.350000000000000     
 -0.750000000000000      -0.350000000000000     
 -0.700000000000000      -0.350000000000000     
 -0.650000000000000      -0.350000000000000     
 -0.600000000000000      -0.350000000000000     
 -0.550000000000000      -0.350000000000000     
 -0.500000000000000      -0.350000000000000     
 -0.450000000000000      -0.350000000000000     
 -0.400000000000000      -0.350000000000000     
 -0.350000000000000      -0.350000000000000     
 -0.300000000000000      -0.350000000000000     
 -0.250000000000000      -0.350000000000000     
 -0.200000000000000      -0.350000000000000     
 -0.150000000000000      -0.350000000000000     
 -0.100000000000000      -0.350000000000000     
 -4.999999999999982E-002 -0.350000000000000     
  0.000000000000000E+000 -0.350000000000000     
  5.000000000000027E-002 -0.350000000000000     
  0.100000000000000      -0.350000000000000     
  0.150000000000000      -0.350000000000000     
  0.200000000000000      -0.350000000000000     
  0.250000000000000      -0.350000000000000     
  0.300000000000000      -0.350000000000000     
  0.350000000000000      -0.350000000000000     
  0.400000000000000      -0.350000000000000     
  0.450000000000000      -0.350000000000000     
  0.500000000000000      -0.350000000000000     
  0.550000000000000      -0.350000000000000     
  0.600000000000000      -0.350000000000000     
  0.650000000000000      -0.350000000000000     
  0.700000000000000      -0.350000000000000     
  0.750000000000000      -0.350000000000000     
  0.800000000000000      -0.350000000000000     
  0.850000000000000      -0.350000000000000     
  0.900000000000000      -0.350000000000000     
  0.950000000000000      -0.350000000000000     
   1.00000000000000      -0.350000000000000     
   1.05000000000000      -0.350000000000000     
   1.10000000000000      -0.350000000000000     
   1.15000000000000      -0.350000000000000     
   1.20000000000000      -0.350000000000000     
   1.25000000000000      -0.350000000000000     
   1.30000000000000      -0.350000000000000     
   1.35000000000000      -0.350000000000000     
   1.40000000000000      -0.350000000000000     
   1.45000000000000      -0.350000000000000     
   1.50000000000000      -0.350000000000000     
   1.55000000000000      -0.350000000000000     
   1.60000000000000      -0.350000000000000     
   1.65000000000000      -0.350000000000000     
   1.70000000000000      -0.350000000000000     
   1.75000000000000      -0.350000000000000     
   1.80000000000000      -0.350000000000000     
   1.85000000000000      -0.350000000000000     
   1.90000000000000      -0.350000000000000     
   1.95000000000000      -0.350000000000000     
   2.00000000000000      -0.350000000000000     
  -2.00000000000000      -0.300000000000000     
  -1.95000000000000      -0.300000000000000     
  -1.90000000000000      -0.300000000000000     
  -1.85000000000000      -0.300000000000000     
  -1.80000000000000      -0.300000000000000     
  -1.75000000000000      -0.300000000000000     
  -1.70000000000000      -0.300000000000000     
  -1.65000000000000      -0.300000000000000     
  -1.60000000000000      -0.300000000000000     
  -1.55000000000000      -0.300000000000000     
  -1.50000000000000      -0.300000000000000     
  -1.45000000000000      -0.300000000000000     
  -1.40000000000000      -0.300000000000000     
  -1.35000000000000      -0.300000000000000     
  -1.30000000000000      -0.300000000000000     
  -1.25000000000000      -0.300000000000000     
  -1.20000000000000      -0.300000000000000     
  -1.15000000000000      -0.300000000000000     
  -1.10000000000000      -0.300000000000000     
  -1.05000000000000      -0.300000000000000     
  -1.00000000000000      -0.300000000000000     
 -0.950000000000000      -0.300000000000000     
 -0.900000000000000      -0.300000000000000     
 -0.850000000000000      -0.300000000000000     
 -0.800000000000000      -0.300000000000000     
 -0.750000000000000      -0.300000000000000     
 -0.700000000000000      -0.300000000000000     
 -0.650000000000000      -0.300000000000000     
 -0.600000000000000      -0.300000000000000     
 -0.550000000000000      -0.300000000000000     
 -0.500000000000000      -0.300000000000000     
 -0.450000000000000      -0.300000000000000     
 -0.400000000000000      -0.300000000000000     
 -0.350000000000000      -0.300000000000000     
 -0.300000000000000      -0.300000000000000     
 -0.250000000000000      -0.300000000000000     
 -0.200000000000000      -0.300000000000000     
 -0.150000000000000      -0.300000000000000     
 -0.100000000000000      -0.300000000000000     
 -4.999999999999982E-002 -0.300000000000000     
  0.000000000000000E+000 -0.300000000000000     
  5.000000000000027E-002 -0.300000000000000     
  0.100000000000000      -0.300000000000000     
  0.150000000000000      -0.300000000000000     
  0.200000000000000      -0.300000000000000     
  0.250000000000000      -0.300000000000000     
  0.300000000000000      -0.300000000000000     
  0.350000000000000      -0.300000000000000     
  0.400000000000000      -0.300000000000000     
  0.450000000000000      -0.300000000000000     
  0.500000000000000      -0.300000000000000     
  0.550000000000000      -0.300000000000000     
  0.600000000000000      -0.300000000000000     
  0.650000000000000      -0.300000000000000     
  0.700000000000000      -0.300000000000000     
  0.750000000000000      -0.300000000000000     
  0.800000000000000      -0.300000000000000     
  0.850000000000000      -0.300000000000000     
  0.900000000000000      -0.300000000000000     
  0.950000000000000      -0.300000000000000     
   1.00000000000000      -0.300000000000000     
   1.05000000000000      -0.300000000000000     
   1.10000000000000      -0.300000000000000     
   1.15000000000000      -0.300000000000000     
   1.20000000000000      -0.300000000000000     
   1.25000000000000      -0.300000000000000     
   1.30000000000000      -0.300000000000000     
   1.35000000000000      -0.300000000000000     
   1.40000000000000      -0.300000000000000     
   1.45000000000000      -0.300000000000000     
   1.50000000000000      -0.300000000000000     
   1.55000000000000      -0.300000000000000     
   1.60000000000000      -0.300000000000000     
   1.65000000000000      -0.300000000000000     
   1.70000000000000      -0.300000000000000     
   1.75000000000000      -0.300000000000000     
   1.80000000000000      -0.300000000000000     
   1.85000000000000      -0.300000000000000     
   1.90000000000000      -0.300000000000000     
   1.95000000000000      -0.300000000000000     
   2.00000000000000      -0.300000000000000     
  -2.00000000000000      -0.250000000000000     
  -1.95000000000000      -0.250000000000000     
  -1.90000000000000      -0.250000000000000     
  -1.85000000000000      -0.250000000000000     
  -1.80000000000000      -0.250000000000000     
  -1.75000000000000      -0.250000000000000     
  -1.70000000000000      -0.250000000000000     
  -1.65000000000000      -0.250000000000000     
  -1.60000000000000      -0.250000000000000     
  -1.55000000000000      -0.250000000000000     
  -1.50000000000000      -0.250000000000000     
  -1.45000000000000      -0.250000000000000     
  -1.40000000000000      -0.250000000000000     
  -1.35000000000000      -0.250000000000000     
  -1.30000000000000      -0.250000000000000     
  -1.25000000000000      -0.250000000000000     
  -1.20000000000000      -0.250000000000000     
  -1.15000000000000      -0.250000000000000     
  -1.10000000000000      -0.250000000000000     
  -1.05000000000000      -0.250000000000000     
  -1.00000000000000      -0.250000000000000     
 -0.950000000000000      -0.250000000000000     
 -0.900000000000000      -0.250000000000000     
 -0.850000000000000      -0.250000000000000     
 -0.800000000000000      -0.250000000000000     
 -0.750000000000000      -0.250000000000000     
 -0.700000000000000      -0.250000000000000     
 -0.650000000000000      -0.250000000000000     
 -0.600000000000000      -0.250000000000000     
 -0.550000000000000      -0.250000000000000     
 -0.500000000000000      -0.250000000000000     
 -0.450000000000000      -0.250000000000000     
 -0.400000000000000      -0.250000000000000     
 -0.350000000000000      -0.250000000000000     
 -0.300000000000000      -0.250000000000000     
 -0.250000000000000      -0.250000000000000     
 -0.200000000000000      -0.250000000000000     
 -0.150000000000000      -0.250000000000000     
 -0.100000000000000      -0.250000000000000     
 -4.999999999999982E-002 -0.250000000000000     
  0.000000000000000E+000 -0.250000000000000     
  5.000000000000027E-002 -0.250000000000000     
  0.100000000000000      -0.250000000000000     
  0.150000000000000      -0.250000000000000     
  0.200000000000000      -0.250000000000000     
  0.250000000000000      -0.250000000000000     
  0.300000000000000      -0.250000000000000     
  0.350000000000000      -0.250000000000000     
  0.400000000000000      -0.250000000000000     
  0.450000000000000      -0.250000000000000     
  0.500000000000000      -0.250000000000000     
  0.550000000000000      -0.250000000000000     
  0.600000000000000      -0.250000000000000     
  0.650000000000000      -0.250000000000000     
  0.700000000000000      -0.250000000000000     
  0.750000000000000      -0.250000000000000     
  0.800000000000000      -0.250000000000000     
  0.850000000000000      -0.250000000000000     
  0.900000000000000      -0.250000000000000     
  0.950000000000000      -0.250000000000000     
   1.00000000000000      -0.250000000000000     
   1.05000000000000      -0.250000000000000     
   1.10000000000000      -0.250000000000000     
   1.15000000000000      -0.250000000000000     
   1.20000000000000      -0.250000000000000     
   1.25000000000000      -0.250000000000000     
   1.30000000000000      -0.250000000000000     
   1.35000000000000      -0.250000000000000     
   1.40000000000000      -0.250000000000000     
   1.45000000000000      -0.250000000000000     
   1.50000000000000      -0.250000000000000     
   1.55000000000000      -0.250000000000000     
   1.60000000000000      -0.250000000000000     
   1.65000000000000      -0.250000000000000     
   1.70000000000000      -0.250000000000000     
   1.75000000000000      -0.250000000000000     
   1.80000000000000      -0.250000000000000     
   1.85000000000000      -0.250000000000000     
   1.90000000000000      -0.250000000000000     
   1.95000000000000      -0.250000000000000     
   2.00000000000000      -0.250000000000000     
  -2.00000000000000      -0.200000000000000     
  -1.95000000000000      -0.200000000000000     
  -1.90000000000000      -0.200000000000000     
  -1.85000000000000      -0.200000000000000     
  -1.80000000000000      -0.200000000000000     
  -1.75000000000000      -0.200000000000000     
  -1.70000000000000      -0.200000000000000     
  -1.65000000000000      -0.200000000000000     
  -1.60000000000000      -0.200000000000000     
  -1.55000000000000      -0.200000000000000     
  -1.50000000000000      -0.200000000000000     
  -1.45000000000000      -0.200000000000000     
  -1.40000000000000      -0.200000000000000     
  -1.35000000000000      -0.200000000000000     
  -1.30000000000000      -0.200000000000000     
  -1.25000000000000      -0.200000000000000     
  -1.20000000000000      -0.200000000000000     
  -1.15000000000000      -0.200000000000000     
  -1.10000000000000      -0.200000000000000     
  -1.05000000000000      -0.200000000000000     
  -1.00000000000000      -0.200000000000000     
 -0.950000000000000      -0.200000000000000     
 -0.900000000000000      -0.200000000000000     
 -0.850000000000000      -0.200000000000000     
 -0.800000000000000      -0.200000000000000     
 -0.750000000000000      -0.200000000000000     
 -0.700000000000000      -0.200000000000000     
 -0.650000000000000      -0.200000000000000     
 -0.600000000000000      -0.200000000000000     
 -0.550000000000000      -0.200000000000000     
 -0.500000000000000      -0.200000000000000     
 -0.450000000000000      -0.200000000000000     
 -0.400000000000000      -0.200000000000000     
 -0.350000000000000      -0.200000000000000     
 -0.300000000000000      -0.200000000000000     
 -0.250000000000000      -0.200000000000000     
 -0.200000000000000      -0.200000000000000     
 -0.150000000000000      -0.200000000000000     
 -0.100000000000000      -0.200000000000000     
 -4.999999999999982E-002 -0.200000000000000     
  0.000000000000000E+000 -0.200000000000000     
  5.000000000000027E-002 -0.200000000000000     
  0.100000000000000      -0.200000000000000     
  0.150000000000000      -0.200000000000000     
  0.200000000000000      -0.200000000000000     
  0.250000000000000      -0.200000000000000     
  0.300000000000000      -0.200000000000000     
  0.350000000000000      -0.200000000000000     
  0.400000000000000      -0.200000000000000     
  0.450000000000000      -0.200000000000000     
  0.500000000000000      -0.200000000000000     
  0.550000000000000      -0.200000000000000     
  0.600000000000000      -0.200000000000000     
  0.650000000000000      -0.200000000000000     
  0.700000000000000      -0.200000000000000     
  0.750000000000000      -0.200000000000000     
  0.800000000000000      -0.200000000000000     
  0.850000000000000      -0.200000000000000     
  0.900000000000000      -0.200000000000000     
  0.950000000000000      -0.200000000000000     
   1.00000000000000      -0.200000000000000     
   1.05000000000000      -0.200000000000000     
   1.10000000000000      -0.200000000000000     
   1.15000000000000      -0.200000000000000     
   1.20000000000000      -0.200000000000000     
   1.25000000000000      -0.200000000000000     
   1.30000000000000      -0.200000000000000     
   1.35000000000000      -0.200000000000000     
   1.40000000000000      -0.200000000000000     
   1.45000000000000      -0.200000000000000     
   1.50000000000000      -0.200000000000000     
   1.55000000000000      -0.200000000000000     
   1.60000000000000      -0.200000000000000     
   1.65000000000000      -0.200000000000000     
   1.70000000000000      -0.200000000000000     
   1.75000000000000      -0.200000000000000     
   1.80000000000000      -0.200000000000000     
   1.85000000000000      -0.200000000000000     
   1.90000000000000      -0.200000000000000     
   1.95000000000000      -0.200000000000000     
   2.00000000000000      -0.200000000000000     
  -2.00000000000000      -0.150000000000000     
  -1.95000000000000      -0.150000000000000     
  -1.90000000000000      -0.150000000000000     
  -1.85000000000000      -0.150000000000000     
  -1.80000000000000      -0.150000000000000     
  -1.75000000000000      -0.150000000000000     
  -1.70000000000000      -0.150000000000000     
  -1.65000000000000      -0.150000000000000     
  -1.60000000000000      -0.150000000000000     
  -1.55000000000000      -0.150000000000000     
  -1.50000000000000      -0.150000000000000     
  -1.45000000000000      -0.150000000000000     
  -1.40000000000000      -0.150000000000000     
  -1.35000000000000      -0.150000000000000     
  -1.30000000000000      -0.150000000000000     
  -1.25000000000000      -0.150000000000000     
  -1.20000000000000      -0.150000000000000     
  -1.15000000000000      -0.150000000000000     
  -1.10000000000000      -0.150000000000000     
  -1.05000000000000      -0.150000000000000     
  -1.00000000000000      -0.150000000000000     
 -0.950000000000000      -0.150000000000000     
 -0.900000000000000      -0.150000000000000     
 -0.850000000000000      -0.150000000000000     
 -0.800000000000000      -0.150000000000000     
 -0.750000000000000      -0.150000000000000     
 -0.700000000000000      -0.150000000000000     
 -0.650000000000000      -0.150000000000000     
 -0.600000000000000      -0.150000000000000     
 -0.550000000000000      -0.150000000000000     
 -0.500000000000000      -0.150000000000000     
 -0.450000000000000      -0.150000000000000     
 -0.400000000000000      -0.150000000000000     
 -0.350000000000000      -0.150000000000000     
 -0.300000000000000      -0.150000000000000     
 -0.250000000000000      -0.150000000000000     
 -0.200000000000000      -0.150000000000000     
 -0.150000000000000      -0.150000000000000     
 -0.100000000000000      -0.150000000000000     
 -4.999999999999982E-002 -0.150000000000000     
  0.000000000000000E+000 -0.150000000000000     
  5.000000000000027E-002 -0.150000000000000     
  0.100000000000000      -0.150000000000000     